 Gaussian 16, Revision A.03,
 Gaussian 16:  ES64L-G16RevA.03 25-Dec-2016

 ----------------------------------------------------------------------
 # opt=(calcfc,ts,noeigentest) freq cc-pvdz empiricaldispersion=gd3 m06
 2x
 ----------------------------------------------------------------------

 --------------------
 FuranMaleimideTSEndo
 --------------------
 Symbolic Z-matrix:
 Charge =  0 Multiplicity = 1

 SCF Done:  E(RM062X) =  -936.055928008     A.U. after   15 cycles
 SCF Done:  E(RM062X) =  -936.093253861     A.U. after   13 cycles
 SCF Done:  E(RM062X) =  -936.124613044     A.U. after   14 cycles
 SCF Done:  E(RM062X) =  -936.143987467     A.U. after   13 cycles
 SCF Done:  E(RM062X) =  -936.154881154     A.U. after   13 cycles
 SCF Done:  E(RM062X) =  -936.159506834     A.U. after   13 cycles
 SCF Done:  E(RM062X) =  -936.161017961     A.U. after   13 cycles
 SCF Done:  E(RM062X) =  -936.161856746     A.U. after   14 cycles
 SCF Done:  E(RM062X) =  -936.161705765     A.U. after   13 cycles
 SCF Done:  E(RM062X) =  -936.162180036     A.U. after   12 cycles
 SCF Done:  E(RM062X) =  -936.162229630     A.U. after   11 cycles
 SCF Done:  E(RM062X) =  -936.162241038     A.U. after   11 cycles
 SCF Done:  E(RM062X) =  -936.162242736     A.U. after    9 cycles
 SCF Done:  E(RM062X) =  -936.162244693     A.U. after    8 cycles
 SCF Done:  E(RM062X) =  -936.162245361     A.U. after    9 cycles
 SCF Done:  E(RM062X) =  -936.162245431     A.U. after    7 cycles
 SCF Done:  E(RM062X) =  -936.162245540     A.U. after    8 cycles
 SCF Done:  E(RM062X) =  -936.162245496     A.U. after    7 cycles
 SCF Done:  E(RM062X) =  -936.162245547     A.U. after    6 cycles
 Optimization completed.
    -- Stationary point found.
 Normal termination of Gaussian 16 at Wed May 15 14:05:33 2024.

 -------------------------------------------------------------------
 #N Geom=AllCheck Guess=TCheck SCRF=Check GenChk RM062X/CC-pVDZ Freq
 -------------------------------------------------------------------

 Structure from the checkpoint file:  "FM_C1-A_TSEndo_optfreq_CREST.chk"
 --------------------
 FuranMaleimideTSEndo
 --------------------
 Charge =  0 Multiplicity = 1

                         Standard orientation:
 ---------------------------------------------------------------------
 Center     Atomic      Atomic             Coordinates (Angstroms)
 Number     Number       Type             X           Y           Z
 ---------------------------------------------------------------------
      1          6           0       -0.400428    1.108066   -0.328619
      2          6           0       -0.615381    2.194167    0.559014
      3          6           0       -1.941011    2.533744    0.431505
      4          1           0        0.137959    2.577397    1.239936
      5          1           0       -2.509617    3.254360    1.012845
      6          6           0       -2.496450    1.593806   -0.483677
      7          1           0       -3.433610    1.650673   -1.033873
      8          8           0       -1.462518    1.005132   -1.161937
      9          6           0       -1.435772   -0.359658    1.068723
     10          1           0       -0.864834   -0.150159    1.967453
     11          6           0       -2.755766    0.029527    0.777825
     12          1           0       -3.454303    0.467416    1.487068
     13          6           0       -3.301458   -0.952195   -0.225549
     14          6           0       -1.132067   -1.560892    0.266215
     15          7           0       -2.250320   -1.824594   -0.509475
     16          1           0       -2.291313   -2.551270   -1.214479
     17          8           0       -0.104310   -2.222904    0.231144
     18          8           0       -4.396330   -0.990308   -0.726164
     19          6           0        0.918045    0.600566   -0.839857
     20          1           0        1.077488    1.056766   -1.831056
     21          1           0        0.886261   -0.491705   -0.980675
     22          8           0        1.959770    1.011908    0.007199
     23          6           0        2.495391    0.003417    0.866755
     24          1           0        3.201856    0.574582    1.483707
     25          6           0        3.223176   -1.087648    0.082582
     26          1           0        3.810552   -1.663162    0.816276
     27          1           0        2.479692   -1.790892   -0.330472
     28          8           0        1.539936   -0.523951    1.724256
     29          1           0        1.098819   -1.274102    1.276748
     30          6           0        4.127400   -0.555353   -1.027620
     31          1           0        3.506141   -0.106670   -1.819833
     32          1           0        4.651761   -1.406377   -1.489075
     33          6           0        5.140604    0.477581   -0.541387
     34          1           0        5.734664    0.085128    0.299372
     35          1           0        5.837910    0.756981   -1.343602
     36          1           0        4.632730    1.393419   -0.205459
 ---------------------------------------------------------------------

 SCF Done:  E(RM062X) =  -936.162245547     A.U. after    1 cycles

 The electronic state is 1-A.
 Alpha  occ. eigenvalues --  -19.71560 -19.64579 -19.63991 -19.63243 -19.62529
 Alpha  occ. eigenvalues --  -14.80389 -10.67835 -10.67522 -10.64427 -10.64112
 Alpha  occ. eigenvalues --  -10.63869 -10.61565 -10.58001 -10.57570 -10.57177
 Alpha  occ. eigenvalues --  -10.56660 -10.54497 -10.54319 -10.53584  -1.26331
 Alpha  occ. eigenvalues --   -1.19675  -1.19050  -1.17819  -1.12132  -1.06388
 Alpha  occ. eigenvalues --   -0.93184  -0.90303  -0.89599  -0.88275  -0.81137
 Alpha  occ. eigenvalues --   -0.78405  -0.76386  -0.71939  -0.69492  -0.69247
 Alpha  occ. eigenvalues --   -0.68224  -0.66402  -0.65437  -0.62218  -0.61289
 Alpha  occ. eigenvalues --   -0.59261  -0.57814  -0.57251  -0.54448  -0.53804
 Alpha  occ. eigenvalues --   -0.53218  -0.53048  -0.51792  -0.50777  -0.50261
 Alpha  occ. eigenvalues --   -0.49986  -0.49448  -0.48912  -0.47895  -0.47396
 Alpha  occ. eigenvalues --   -0.46389  -0.45910  -0.44434  -0.43252  -0.41705
 Alpha  occ. eigenvalues --   -0.39748  -0.38841  -0.38784  -0.37877  -0.36559
 Alpha  occ. eigenvalues --   -0.35579  -0.35065  -0.34089  -0.33874  -0.32031
 Alpha  occ. eigenvalues --   -0.29411
 Alpha virt. eigenvalues --   -0.03476   0.02441   0.06835   0.09602   0.10238
 Alpha virt. eigenvalues --    0.10670   0.11362   0.12333   0.13056   0.13532
 Alpha virt. eigenvalues --    0.13817   0.14537   0.14654   0.15403   0.16286

 Mulliken charges:
               1
     1  C   -0.025465
     2  C    0.039832
     3  C    0.051194
     4  H    0.023956
     5  H    0.025907
     6  C    0.063289
     7  H    0.048420
     8  O   -0.187547
     9  C   -0.096367
    10  H    0.043715
    11  C   -0.087899
    12  H    0.042833
    13  C    0.229018
    14  C    0.250827
    15  N   -0.152901
    16  H    0.120078
    17  O   -0.302385
    18  O   -0.233552
    19  C    0.196326
    20  H    0.066241
    21  H    0.041908
    22  O   -0.338635
    23  C    0.219433
    24  H    0.025477
    25  C   -0.076506
    26  H    0.043906
    27  H    0.041163
    28  O   -0.286763
    29  H    0.179602
    30  C   -0.075003
    31  H    0.035538
    32  H    0.031258
    33  C   -0.086638
    34  H    0.037468
    35  H    0.039163
    36  H    0.053107
 Sum of Mulliken charges =   0.00000

 Dipole moment (field-independent basis, Debye):
    X=              0.3203    Y=              1.6479    Z=             -0.4397  Tot=              1.7354
 Quadrupole moment (field-independent basis, Debye-Ang):
   XX=           -117.7067   YY=           -108.6957   ZZ=           -111.1761
   XY=             -7.0454   XZ=             -5.5996   YZ=              4.9493

  Exact polarizability: 199.477  -3.902 156.070   4.668   4.735 120.642
 Approx polarizability: 235.422  -7.927 211.130  11.688   1.153 169.663

 ******    1 imaginary frequencies (negative Signs) ******

                      1                      2                      3
                      A                      A                      A
 Frequencies --   -484.5828                35.0279                51.1556
 Red. masses --     10.2880                 5.1259                 4.6176
 Frc consts  --      1.4234                 0.0037                 0.0071
 IR Inten    --      4.4699                 0.8849                 0.9746

                      4                      5                      6
                      A                      A                      A
 Frequencies --     67.3055                89.2879               116.0150
 Red. masses --      4.2356                 4.2876                 3.8083
 Frc consts  --      0.0113                 0.0201                 0.0302
 IR Inten    --      0.8002                 1.0816                 1.7953

                      7                      8                      9
                      A                      A                      A
 Frequencies --    139.1924               158.7488               161.7297
 Red. masses --      8.2310                 3.3177                 5.6417
 Frc consts  --      0.0940                 0.0493                 0.0869
 IR Inten    --      0.8983                 2.7224                 0.1672

                     10                     11                     12
                      A                      A                      A
 Frequencies --    188.4139               192.7802               197.9774
 Red. masses --      4.8556                 7.3314                 4.0972
 Frc consts  --      0.1016                 0.1605                 0.0946
 IR Inten    --      0.2915                 1.1411                 4.0037

                     13                     14                     15
                      A                      A                      A
 Frequencies --    242.0318               266.4676               275.4482
 Red. masses --      5.2428                 1.9826                 3.9746
 Frc consts  --      0.1810                 0.0829                 0.1777
 IR Inten    --      6.0644                 2.3560                 2.5069

                     16                     17                     18
                      A                      A                      A
 Frequencies --    301.5058               334.8425               359.2271
 Red. masses --      1.7171                 2.0727                 2.8636
 Frc consts  --      0.0920                 0.1369                 0.2177
 IR Inten    --      2.2619                 1.3797                 0.6653

                     19                     20                     21
                      A                      A                      A
 Frequencies --    415.9525               426.7146               470.2265
 Red. masses --      5.4487                 8.2024                 4.7850
 Frc consts  --      0.5554                 0.8800                 0.6234
 IR Inten    --     11.8117                23.5825                 4.0763

                     22                     23                     24
                      A                      A                      A
 Frequencies --    490.1347               547.3143               548.4812
 Red. masses --      3.5417                 1.9385                 1.5232
 Frc consts  --      0.5013                 0.3421                 0.2700
 IR Inten    --      2.6332                25.5543                45.3121

                     25                     26                     27
                      A                      A                      A
 Frequencies --    581.1372               599.9030               610.9504
 Red. masses --      3.5389                 5.2589                 4.0493
 Frc consts  --      0.7042                 1.1151                 0.8905
 IR Inten    --     10.6085                37.0906                45.8169

                     28                     29                     30
                      A                      A                      A
 Frequencies --    642.5159               646.7940               708.6268
 Red. masses --      3.0544                 7.3448                 4.8460
 Frc consts  --      0.7429                 1.8104                 1.4337
 IR Inten    --     12.2353                12.0860                 4.4126

                     31                     32                     33
                      A                      A                      A
 Frequencies --    717.1951               730.6765               744.0923
 Red. masses --      3.1267                 1.3212                 1.4316
 Frc consts  --      0.9476                 0.4156                 0.4670
 IR Inten    --      9.0274               210.2228                 0.9800

                     34                     35                     36
                      A                      A                      A
 Frequencies --    763.4529               790.6807               799.4483
 Red. masses --      3.7392                 1.3566                 4.1386
 Frc consts  --      1.2841                 0.4997                 1.5584
 IR Inten    --     12.5893                63.0782                11.7143

                     37                     38                     39
                      A                      A                      A
 Frequencies --    842.9363               849.9669               887.4659
 Red. masses --      1.3863                 1.6024                 5.5127
 Frc consts  --      0.5803                 0.6821                 2.5581
 IR Inten    --     28.6725                 8.7393                 1.7920

                     40                     41                     42
                      A                      A                      A
 Frequencies --    901.0644               910.5577               931.5901
 Red. masses --      1.2506                 2.3357                 2.5417
 Frc consts  --      0.5982                 1.1410                 1.2996
 IR Inten    --     27.3583                 2.7557                 7.5743

                     43                     44                     45
                      A                      A                      A
 Frequencies --    937.5442               938.4204               954.4402
 Red. masses --      1.8758                 1.6260                 1.9125
 Frc consts  --      0.9714                 0.8436                 1.0265
 IR Inten    --     10.4396                23.3360                13.2078

                     46                     47                     48
                      A                      A                      A
 Frequencies --    958.3251               997.7957              1003.4999
 Red. masses --      2.7873                 1.7580                 1.3125
 Frc consts  --      1.5082                 1.0312                 0.7787
 IR Inten    --     12.4543                17.3919                 8.5408

                     49                     50                     51
                      A                      A                      A
 Frequencies --   1026.4922              1041.8781              1060.3200
 Red. masses --      1.3003                 1.5288                 1.3747
 Frc consts  --      0.8072                 0.9778                 0.9106
 IR Inten    --     21.3614                13.4556                16.2381

                     52                     53                     54
                      A                      A                      A
 Frequencies --   1080.4856              1096.1048              1112.1766
 Red. masses --      1.6325                 1.9295                 2.4470
 Frc consts  --      1.1229                 1.3658                 1.7833
 IR Inten    --      0.8783                 3.2996                15.2000

                     55                     56                     57
                      A                      A                      A
 Frequencies --   1137.1422              1160.6557              1164.5705
 Red. masses --      2.0225                 2.0385                 2.6610
 Frc consts  --      1.5409                 1.6180                 2.1263
 IR Inten    --     19.6993                30.5177                68.8609

                     58                     59                     60
                      A                      A                      A
 Frequencies --   1167.9121              1197.7922              1237.8767
 Red. masses --      2.6214                 3.5259                 1.3191
 Frc consts  --      2.1067                 2.9805                 1.1909
 IR Inten    --     48.2770               195.6987                11.2276

                     61                     62                     63
                      A                      A                      A
 Frequencies --   1247.0057              1276.9932              1293.6315
 Red. masses --      2.4069                 1.2817                 1.2510
 Frc consts  --      2.2051                 1.2314                 1.2334
 IR Inten    --     51.7799                 5.2292                 7.6791

                     64                     65                     66
                      A                      A                      A
 Frequencies --   1314.5624              1319.9115              1327.6919
 Red. masses --      2.2098                 2.1180                 1.2183
 Frc consts  --      2.2499                 2.1740                 1.2653
 IR Inten    --     12.8781                13.7734                 2.1273

                     67                     68                     69
                      A                      A                      A
 Frequencies --   1351.5677              1364.5760              1387.3804
 Red. masses --      2.3677                 1.3267                 4.2143
 Frc consts  --      2.5483                 1.4555                 4.7793
 IR Inten    --     39.0760                 2.8329               237.8844

                     70                     71                     72
                      A                      A                      A
 Frequencies --   1397.7598              1409.1521              1418.5146
 Red. masses --      1.5248                 1.5590                 1.6074
 Frc consts  --      1.7552                 1.8239                 1.9056
 IR Inten    --      4.9728                 9.9672                59.4020

                     73                     74                     75
                      A                      A                      A
 Frequencies --   1425.2143              1427.8059              1451.7615
 Red. masses --      2.9329                 1.7174                 1.4400
 Frc consts  --      3.5100                 2.0628                 1.7881
 IR Inten    --     16.7127                 3.3565                18.5729

                     76                     77                     78
                      A                      A                      A
 Frequencies --   1456.0041              1462.9288              1468.1061
 Red. masses --      2.0127                 1.0868                 1.0898
 Frc consts  --      2.5139                 1.3704                 1.3839
 IR Inten    --      9.5154                 4.5621                13.7544

                     79                     80                     81
                      A                      A                      A
 Frequencies --   1478.0518              1483.2802              1498.8280
 Red. masses --      1.0977                 1.1245                 1.1896
 Frc consts  --      1.4129                 1.4576                 1.5746
 IR Inten    --     39.5219                17.0887                41.1889

                     82                     83                     84
                      A                      A                      A
 Frequencies --   1504.2422              1557.8325              1807.9580
 Red. masses --      4.1485                 5.8022                 9.8431
 Frc consts  --      5.5307                 8.2964                18.9565
 IR Inten    --     16.5187                13.6922               838.2901

                     85                     86                     87
                      A                      A                      A
 Frequencies --   1905.1645              3053.3653              3058.5267
 Red. masses --     11.9851                 1.0617                 1.0503
 Frc consts  --     25.6304                 5.8318                 5.7889
 IR Inten    --    330.4669                24.9796                17.4934

                     88                     89                     90
                      A                      A                      A
 Frequencies --   3058.8208              3064.6095              3095.4979
 Red. masses --      1.0497                 1.0630                 1.0996
 Frc consts  --      5.7864                 5.8819                 6.2081
 IR Inten    --      5.7898                22.0626                 5.2531

                     91                     92                     93
                      A                      A                      A
 Frequencies --   3105.5097              3108.8798              3123.0881
 Red. masses --      1.1005                 1.1010                 1.0925
 Frc consts  --      6.2531                 6.2694                 6.2782
 IR Inten    --     20.1715                 0.1648                75.3203

                     94                     95                     96
                      A                      A                      A
 Frequencies --   3138.1350              3149.9318              3246.9009
 Red. masses --      1.1017                 1.1026                 1.0942
 Frc consts  --      6.3922                 6.4455                 6.7963
 IR Inten    --     30.2312                27.8351                 0.3669

                     97                     98                     99
                      A                      A                      A
 Frequencies --   3254.9512              3279.9369              3291.3051
 Red. masses --      1.0956                 1.0965                 1.0975
 Frc consts  --      6.8392                 6.9503                 7.0048
 IR Inten    --      0.2197                 0.4050                 4.8685

                    100                    101                    102
                      A                      A                      A
 Frequencies --   3303.7449              3604.5987              3657.6291
 Red. masses --      1.1049                 1.0689                 1.0812
 Frc consts  --      7.1053                 8.1826                 8.5219
 IR Inten    --      3.3425               382.1664               105.2073

 - Thermochemistry -
 -------------------
 Temperature   298.150 Kelvin.  Pressure   1.00000 Atm.
 Atom     1 has atomic number  6 and mass  12.00000

 Molecular mass:   267.11067 amu.
 Principal axes and moments of inertia in atomic units:
                           1         2         3
     Eigenvalues --  2290.978187146.597078181.97359
           X            0.99989  -0.00999  -0.01082
           Y            0.01023   0.99971   0.02202
           Z            0.01060  -0.02212   0.99970
 This molecule is an asymmetric top.
 Rotational symmetry number  1.
 Warning -- assumption of classical behavior for rotation
           may cause significant error
 Rotational temperatures (Kelvin)      0.03781     0.01212     0.01059
 Rotational constants (GHZ):           0.78776     0.25253     0.22058
    1 imaginary frequencies ignored.
 Zero-point vibrational energy     775418.3 (Joules/Mol)
                                  185.32943 (Kcal/Mol)
 Warning -- explicit consideration of  26 degrees of freedom as
           vibrations may cause significant error
 Vibrational temperatures:     50.40    73.60    96.84   128.47   166.92
          (Kelvin)            200.27   228.40   232.69   271.09   277.37
                              284.85   348.23   383.39   396.31   433.80
                              481.76   516.85   598.46   613.95   676.55
                              705.19   787.46   789.14   836.13   863.13
                              879.02   924.44   930.59  1019.56  1031.88
                             1051.28  1070.58  1098.44  1137.61  1150.23
                             1212.80  1222.91  1276.87  1296.43  1310.09
                             1340.35  1348.92  1350.18  1373.23  1378.82
                             1435.61  1443.81  1476.89  1499.03  1525.56
                             1554.58  1577.05  1600.17  1636.09  1669.92
                             1675.56  1680.37  1723.36  1781.03  1794.16
                             1837.31  1861.25  1891.36  1899.06  1910.25
                             1944.60  1963.32  1996.13  2011.06  2027.46
                             2040.93  2050.57  2054.29  2088.76  2094.87
                             2104.83  2112.28  2126.59  2134.11  2156.48
                             2164.27  2241.37  2601.25  2741.11  4393.11
                             4400.54  4400.96  4409.29  4453.73  4468.14
                             4472.98  4493.43  4515.08  4532.05  4671.57
                             4683.15  4719.10  4735.45  4753.35  5186.21
                             5262.51

 Zero-point correction=                           0.295341 (Hartree/Particle)
 Thermal correction to Energy=                    0.312237
 Thermal correction to Enthalpy=                  0.313181
 Thermal correction to Gibbs Free Energy=         0.250759
 Sum of electronic and zero-point Energies=           -935.866904
 Sum of electronic and thermal Energies=              -935.850009
 Sum of electronic and thermal Enthalpies=            -935.849065
 Sum of electronic and thermal Free Energies=         -935.911486

                     E (Thermal)             CV                S
                      KCal/Mol        Cal/Mol-Kelvin    Cal/Mol-Kelvin
 Total                  195.931             66.278            131.377
 Electronic               0.000              0.000              0.000
 Translational            0.889              2.981             42.647
 Rotational               0.889              2.981             33.260
 Vibrational            194.154             60.316             55.470
 Vibration     1          0.594              1.982              5.522
 Vibration     2          0.595              1.977              4.772
 Vibration     3          0.598              1.970              4.231
 Vibration     4          0.602              1.957              3.676
 Vibration     5          0.608              1.936              3.166
 Vibration     6          0.615              1.914              2.815
 Vibration     7          0.621              1.893              2.565
 Vibration     8          0.622              1.889              2.529
 Vibration     9          0.633              1.856              2.243
 Vibration    10          0.635              1.850              2.201
 Vibration    11          0.637              1.843              2.152
 Vibration    12          0.658              1.776              1.788
 Vibration    13          0.672              1.735              1.619
 Vibration    14          0.677              1.719              1.562
 Vibration    15          0.693              1.671              1.409
 Vibration    16          0.716              1.606              1.237
 Vibration    17          0.734              1.556              1.125
 Vibration    18          0.779              1.436              0.906
 Vibration    19          0.788              1.412              0.869
 Vibration    20          0.827              1.316              0.737
 Vibration    21          0.846              1.272              0.683
 Vibration    22          0.903              1.146              0.550
 Vibration    23          0.904              1.143              0.547
 Vibration    24          0.938              1.072              0.483
 Vibration    25          0.958              1.032              0.450
 Vibration    26          0.970              1.009              0.431

 Optimization completed.
    -- Stationary point found.
 Normal termination of Gaussian 16 at Wed May 15 14:26:16 2024.
