 Gaussian 16, Revision B.01,
 Gaussian 16:  ES64L-G16RevB.01 20-Dec-2017

 ----------------------------------------------------------------------
 # opt=(calcall,ts,noeigentest) freq cc-pvdz geom=connectivity empirica
 ldispersion=gd3 m062x
 ----------------------------------------------------------------------

 -------------------
 Title Card Required
 -------------------
 Symbolic Z-matrix:
 Charge =  0 Multiplicity = 2

 SCF Done:  E(UM062X) =  -1102.21237166     A.U. after   21 cycles
 SCF Done:  E(UM062X) =  -1102.21236242     A.U. after   14 cycles
 SCF Done:  E(UM062X) =  -1102.21236263     A.U. after   10 cycles
 Optimization completed.
    -- Stationary point found.
 ******    1 imaginary frequencies (negative Signs) ******
    1 imaginary frequencies ignored.
 Normal termination of Gaussian 16 at Fri Mar 28 09:21:56 2025.

 -------------------------------------------------------------------
 #N Geom=AllCheck Guess=TCheck SCRF=Check GenChk UM062X/CC-pVDZ Freq
 -------------------------------------------------------------------

 Structure from the checkpoint file:  "TSrad_sscan.chk"
 -------------------
 Title Card Required
 -------------------
 Charge =  0 Multiplicity = 2

                         Standard orientation:
 ---------------------------------------------------------------------
 Center     Atomic      Atomic             Coordinates (Angstroms)
 Number     Number       Type             X           Y           Z
 ---------------------------------------------------------------------
      1          6           0        2.249773    2.639057    0.276817
      2          6           0        2.816674    1.486673    0.811259
      3          6           0        2.011830    0.355768    0.929176
      4          6           0        0.656131    0.370718    0.514032
      5          6           0        0.092740    1.538134   -0.023788
      6          6           0        0.897629    2.665877   -0.136181
      7          1           0        2.870778    3.527472    0.180561
      8          1           0        3.861731    1.479803    1.122237
      9          1           0       -0.949856    1.578391   -0.350554
     10          6           0        0.124068   -0.939778    0.747550
     11          7           0        2.283878   -0.903697    1.426963
     12          1           0        3.204462   -1.245176    1.661968
     13          6           0       -1.271754   -1.368332    0.439229
     14          1           0       -1.517562   -1.061444   -0.590297
     15          1           0       -1.364491   -2.463513    0.489966
     16          6           0       -2.288502   -0.697371    1.376862
     17          1           0       -2.040884    0.369399    1.466421
     18          1           0       -2.244029   -1.138492    2.381903
     19          7           0       -3.650766   -0.781088    0.886189
     20          1           0       -4.228775   -1.571306    1.139307
     21          6           0       -4.041609    0.018706   -0.148065
     22          6           0       -5.430977   -0.239685   -0.691135
     23          1           0       -5.867498    0.719494   -0.991288
     24          1           0       -5.348701   -0.868930   -1.589075
     25          1           0       -6.085477   -0.737928    0.035827
     26          8           0       -3.312349    0.882136   -0.606738
     27          8           0        0.299447    3.772999   -0.664027
     28          6           0        1.082136    4.931580   -0.812854
     29          1           0        0.424888    5.689554   -1.253392
     30          1           0        1.456791    5.298733    0.157985
     31          1           0        1.939443    4.760939   -1.486169
     32          6           0        1.722421   -2.652118   -0.796392
     33          9           0        0.638356   -3.061717   -1.450689
     34          9           0        2.295729   -1.658419   -1.460248
     35          9           0        2.583356   -3.668099   -0.693826
     36          6           0        1.174341   -1.707581    1.239941
     37          1           0        1.134243   -2.700354    1.682816
 ---------------------------------------------------------------------

 SCF Done:  E(UM062X) =  -1102.21236263     A.U. after    1 cycles

 The electronic state is 2-A.
 Alpha  occ. eigenvalues --  -25.28263 -25.28188 -25.28032 -19.64929 -19.59661
 Alpha  occ. eigenvalues --  -14.80040 -14.77902 -10.76565 -10.64711 -10.59845
 Alpha  occ. eigenvalues --  -10.59457 -10.59241 -10.58124 -10.57855 -10.55402
 Alpha  occ. eigenvalues --  -10.55180 -10.54940 -10.54807 -10.54629 -10.54259
 Alpha  occ. eigenvalues --  -10.53257  -1.45337  -1.36381  -1.36352  -1.17693
 Alpha  occ. eigenvalues --   -1.15421  -1.09059  -1.02682  -0.93913  -0.90637
 Alpha  occ. eigenvalues --   -0.85419  -0.84012  -0.82352  -0.80572  -0.78830
 Alpha  occ. eigenvalues --   -0.77188  -0.72784  -0.70622  -0.67527  -0.67443
 Alpha  occ. eigenvalues --   -0.66709  -0.65904  -0.64735  -0.63225  -0.61066
 Alpha  occ. eigenvalues --   -0.58091  -0.57608  -0.55989  -0.55544  -0.55493
 Alpha  occ. eigenvalues --   -0.54662  -0.53390  -0.53019  -0.52260  -0.51882
 Alpha  occ. eigenvalues --   -0.51607  -0.51047  -0.49667  -0.49438  -0.49016
 Alpha  occ. eigenvalues --   -0.47954  -0.47135  -0.46629  -0.46049  -0.45077
 Alpha  occ. eigenvalues --   -0.44517  -0.43643  -0.42354  -0.42184  -0.41064
 Alpha  occ. eigenvalues --   -0.39611  -0.37355  -0.36944  -0.33579  -0.32177
 Alpha  occ. eigenvalues --   -0.31119  -0.30885  -0.24382  -0.22145
 Alpha virt. eigenvalues --    0.02468   0.07095   0.07410   0.08384   0.09187
 Alpha virt. eigenvalues --    0.10588   0.11264   0.11572   0.13173   0.13592
 Alpha virt. eigenvalues --    0.15581   0.16265   0.16598   0.17094   0.17852

  Beta  occ. eigenvalues --  -25.28011 -25.27986 -25.27820 -19.64939 -19.59658
  Beta  occ. eigenvalues --  -14.80039 -14.77900 -10.75420 -10.64711 -10.59896
  Beta  occ. eigenvalues --  -10.59478 -10.59241 -10.58102 -10.57808 -10.55401
  Beta  occ. eigenvalues --  -10.55203 -10.54955 -10.54635 -10.54581 -10.54300
  Beta  occ. eigenvalues --  -10.53221  -1.44424  -1.35673  -1.35593  -1.17720
  Beta  occ. eigenvalues --   -1.15415  -1.08986  -1.02665  -0.93829  -0.90354
  Beta  occ. eigenvalues --   -0.85358  -0.83968  -0.82233  -0.80281  -0.77297
  Beta  occ. eigenvalues --   -0.77134  -0.72715  -0.70479  -0.66562  -0.66419
  Beta  occ. eigenvalues --   -0.66339  -0.65881  -0.63190  -0.61938  -0.60825
  Beta  occ. eigenvalues --   -0.58032  -0.57547  -0.55849  -0.54646  -0.54462
  Beta  occ. eigenvalues --   -0.54229  -0.53396  -0.52976  -0.52175  -0.51386
  Beta  occ. eigenvalues --   -0.51138  -0.50890  -0.49326  -0.49255  -0.48707
  Beta  occ. eigenvalues --   -0.47855  -0.47065  -0.46582  -0.45970  -0.44961
  Beta  occ. eigenvalues --   -0.44413  -0.43510  -0.42232  -0.41986  -0.40986
  Beta  occ. eigenvalues --   -0.39565  -0.37266  -0.36205  -0.32843  -0.32117
  Beta  occ. eigenvalues --   -0.30857  -0.27009  -0.23828
  Beta virt. eigenvalues --   -0.04018   0.04165   0.07330   0.07511   0.08411
  Beta virt. eigenvalues --    0.09309   0.11102   0.11556   0.11746   0.13171
  Beta virt. eigenvalues --    0.13629   0.15637   0.16286   0.16599   0.17093

 Mulliken charges and spin densities:
               1          2
     1  C   -0.048583   0.078185
     2  C    0.027274  -0.030805
     3  C    0.063397   0.062341
     4  C    0.008758  -0.051718
     5  C   -0.016253   0.061331
     6  C    0.122525  -0.026890
     7  H   -0.003510  -0.003149
     8  H   -0.006587   0.000785
     9  H    0.011723  -0.002190
    10  C   -0.108114   0.234637
    11  N   -0.143607   0.001015
    12  H    0.105546  -0.000271
    13  C    0.069279  -0.017236
    14  H    0.061594   0.007668
    15  H    0.016392   0.000502
    16  C    0.065713   0.011259
    17  H    0.063896  -0.000820
    18  H    0.033029  -0.000063
    19  N   -0.200387   0.000982
    20  H    0.101973  -0.000014
    21  C    0.109924  -0.000021
    22  C   -0.051111   0.000085
    23  H    0.073575  -0.000012
    24  H    0.078291  -0.000015
    25  H    0.041108  -0.000000
    26  O   -0.289365   0.001133
    27  O   -0.302788  -0.002583
    28  C    0.079921   0.000509
    29  H    0.056225  -0.000053
    30  H    0.038607  -0.000151
    31  H    0.040063  -0.000153
    32  C    0.425425   0.657994
    33  F   -0.164587   0.031123
    34  F   -0.155070   0.032648
    35  F   -0.178035   0.039571
    36  C   -0.049977  -0.096847
    37  H    0.023735   0.011220
 Sum of Mulliken charges =  -0.00000   1.00000

 Dipole moment (field-independent basis, Debye):
    X=             -0.2724    Y=             -1.7410    Z=              3.0745  Tot=              3.5437
 Quadrupole moment (field-independent basis, Debye-Ang):
   XX=            -96.3030   YY=           -111.0240   ZZ=           -120.6711
   XY=             15.2263   XZ=              2.2815   YZ=             -8.0596

  Exact polarizability: 197.203   7.386 228.480  13.811 -17.424 120.020
 Approx polarizability: 230.241   6.314 272.757  19.899 -29.924 159.304

 ******    1 imaginary frequencies (negative Signs) ******

                      1                      2                      3
                      A                      A                      A
 Frequencies --   -300.1749                22.7674                32.4590
 Red. masses --      8.4956                17.2847                 4.9752
 Frc consts  --      0.4510                 0.0053                 0.0031
 IR Inten    --     67.5470                 0.0320                 0.6492

                      4                      5                      6
                      A                      A                      A
 Frequencies --     37.7909                42.0605                50.5453
 Red. masses --      6.7333                 4.1262                 1.2540
 Frc consts  --      0.0057                 0.0043                 0.0019
 IR Inten    --      0.3745                 1.6924                 1.0523

                      7                      8                      9
                      A                      A                      A
 Frequencies --     57.9025                71.1062                71.2951
 Red. masses --      4.6778                 3.9853                 4.3498
 Frc consts  --      0.0092                 0.0119                 0.0130
 IR Inten    --     14.0182                 1.6421                 1.8571

                     10                     11                     12
                      A                      A                      A
 Frequencies --     92.9013               102.7682               112.7858
 Red. masses --      5.0517                 4.4214                 7.5591
 Frc consts  --      0.0257                 0.0275                 0.0567
 IR Inten    --      5.5815                 0.3104                 1.2771

                     13                     14                     15
                      A                      A                      A
 Frequencies --    129.8739               164.6988               187.9311
 Red. masses --     11.0459                 5.7984                 2.7524
 Frc consts  --      0.1098                 0.0927                 0.0573
 IR Inten    --      1.3257                 2.0720                 1.9532

                     16                     17                     18
                      A                      A                      A
 Frequencies --    218.2283               262.8105               281.8311
 Red. masses --      4.1628                 2.2057                 1.7206
 Frc consts  --      0.1168                 0.0898                 0.0805
 IR Inten    --      1.5541                 6.9975                 3.0970

                     19                     20                     21
                      A                      A                      A
 Frequencies --    299.8803               319.3679               334.8488
 Red. masses --      2.5991                 2.7916                 4.3370
 Frc consts  --      0.1377                 0.1678                 0.2865
 IR Inten    --      5.2949                12.5370                 9.3405

                     22                     23                     24
                      A                      A                      A
 Frequencies --    386.1748               389.7903               401.9660
 Red. masses --      1.9931                 1.2616                 4.7117
 Frc consts  --      0.1751                 0.1129                 0.4485
 IR Inten    --     19.2542               111.8318                 4.7876

                     25                     26                     27
                      A                      A                      A
 Frequencies --    431.6924               443.9710               457.9231
 Red. masses --      2.3260                 2.8605                 3.5753
 Frc consts  --      0.2554                 0.3322                 0.4417
 IR Inten    --     49.7503                 6.7949                 8.7703

                     28                     29                     30
                      A                      A                      A
 Frequencies --    466.7090               511.5113               516.3789
 Red. masses --      3.3825                17.3969                16.8706
 Frc consts  --      0.4341                 2.6818                 2.6504
 IR Inten    --     21.9936                 1.1034                 3.2255

                     31                     32                     33
                      A                      A                      A
 Frequencies --    545.9562               565.6534               609.2209
 Red. masses --      4.4192                 3.6562                 3.1439
 Frc consts  --      0.7761                 0.6893                 0.6875
 IR Inten    --     19.2766                95.6293                 0.6903

                     34                     35                     36
                      A                      A                      A
 Frequencies --    620.8669               646.5994               665.9314
 Red. masses --      3.1444                 3.6778                 3.6093
 Frc consts  --      0.7141                 0.9060                 0.9431
 IR Inten    --      3.8985                60.9293                17.2944

                     37                     38                     39
                      A                      A                      A
 Frequencies --    674.7689               730.2094               757.4198
 Red. masses --      4.9297                 4.1216                 1.4663
 Frc consts  --      1.3225                 1.2948                 0.4956
 IR Inten    --     78.2091                 3.8585                 7.9498

                     40                     41                     42
                      A                      A                      A
 Frequencies --    774.5752               795.2995               815.5386
 Red. masses --      3.9603                 5.0432                 1.7244
 Frc consts  --      1.3999                 1.8794                 0.6757
 IR Inten    --      4.1291                 3.8108                27.5939

                     43                     44                     45
                      A                      A                      A
 Frequencies --    838.3522               843.3652               909.5520
 Red. masses --      3.3739                 1.4748                 2.4868
 Frc consts  --      1.3971                 0.6181                 1.2121
 IR Inten    --     31.3971                36.9376                 4.5248

                     46                     47                     48
                      A                      A                      A
 Frequencies --    936.3788               944.9403               948.0033
 Red. masses --      1.3296                 3.6571                 1.3578
 Frc consts  --      0.6869                 1.9240                 0.7190
 IR Inten    --      4.3253                11.9770                15.9376

                     49                     50                     51
                      A                      A                      A
 Frequencies --    987.6506              1012.4233              1042.0364
 Red. masses --      1.5871                 4.8507                 2.0583
 Frc consts  --      0.9122                 2.9294                 1.3168
 IR Inten    --      9.3144               440.4309                 8.6489

                     52                     53                     54
                      A                      A                      A
 Frequencies --   1046.7104              1054.1635              1080.1652
 Red. masses --      2.1848                 3.7039                 1.9930
 Frc consts  --      1.4103                 2.4251                 1.3700
 IR Inten    --     57.4966                 2.4211                14.7360

                     55                     56                     57
                      A                      A                      A
 Frequencies --   1102.4869              1129.6285              1135.8302
 Red. masses --      1.3574                 2.6560                 3.5416
 Frc consts  --      0.9721                 1.9969                 2.6920
 IR Inten    --     18.2025                 0.8696                57.3860

                     58                     59                     60
                      A                      A                      A
 Frequencies --   1155.3387              1170.2739              1204.4441
 Red. masses --      1.2545                 1.2853                 1.4384
 Frc consts  --      0.9866                 1.0371                 1.2294
 IR Inten    --      1.3046                 1.0845                13.6295

                     61                     62                     63
                      A                      A                      A
 Frequencies --   1208.6117              1241.7282              1252.5341
 Red. masses --      1.6179                 1.8702                 1.5787
 Frc consts  --      1.3924                 1.6990                 1.4592
 IR Inten    --     13.1801                52.4622                25.3182

                     64                     65                     66
                      A                      A                      A
 Frequencies --   1262.4572              1272.1537              1279.8558
 Red. masses --      4.2027                 1.7513                 3.6005
 Frc consts  --      3.9465                 1.6699                 3.4748
 IR Inten    --    127.4285               205.9420               231.2293

                     67                     68                     69
                      A                      A                      A
 Frequencies --   1290.0786              1310.2456              1330.9462
 Red. masses --      2.7957                 2.2703                 1.3066
 Frc consts  --      2.7414                 2.2964                 1.3637
 IR Inten    --     45.4726                49.4754                21.7358

                     70                     71                     72
                      A                      A                      A
 Frequencies --   1345.1624              1354.3951              1374.0929
 Red. masses --      3.2049                 2.4814                 1.3415
 Frc consts  --      3.4168                 2.6818                 1.4924
 IR Inten    --    186.3941                18.2226                35.6333

                     73                     74                     75
                      A                      A                      A
 Frequencies --   1399.0144              1406.4041              1441.9835
 Red. masses --      3.1614                 1.7659                 1.0602
 Frc consts  --      3.6457                 2.0579                 1.2988
 IR Inten    --     31.0129                14.4550                19.3096

                     76                     77                     78
                      A                      A                      A
 Frequencies --   1444.6122              1456.9194              1459.2129
 Red. masses --      1.1121                 1.2382                 1.3142
 Frc consts  --      1.3674                 1.5485                 1.6487
 IR Inten    --      0.9521                 9.7811                21.1241

                     79                     80                     81
                      A                      A                      A
 Frequencies --   1461.1352              1466.3058              1472.8780
 Red. masses --      1.0642                 2.2337                 1.0421
 Frc consts  --      1.3386                 2.8295                 1.3319
 IR Inten    --      8.9876                 8.8733                 6.7272

                     82                     83                     84
                      A                      A                      A
 Frequencies --   1488.5273              1500.0128              1553.8645
 Red. masses --      1.0810                 2.7393                 3.3530
 Frc consts  --      1.4112                 3.6314                 4.7699
 IR Inten    --     32.6244                58.1881                98.1403

                     85                     86                     87
                      A                      A                      A
 Frequencies --   1555.6541              1583.8144              1657.2045
 Red. masses --      3.6493                 6.1586                 6.7628
 Frc consts  --      5.2034                 9.1021                10.9429
 IR Inten    --    299.0874                10.0123                57.5845

                     88                     89                     90
                      A                      A                      A
 Frequencies --   1714.4172              1815.4244              3030.6697
 Red. masses --      7.6701                10.0568                 1.0360
 Frc consts  --     13.2827                19.5283                 5.6062
 IR Inten    --     25.6564               230.4567                64.3157

                     91                     92                     93
                      A                      A                      A
 Frequencies --   3061.6637              3079.3943              3092.7876
 Red. masses --      1.0599                 1.0368                 1.0617
 Frc consts  --      5.8539                 5.7928                 5.9832
 IR Inten    --     15.3953                 5.4398                24.3054

                     94                     95                     96
                      A                      A                      A
 Frequencies --   3098.8678              3112.6671              3151.3467
 Red. masses --      1.1059                 1.1033                 1.1072
 Frc consts  --      6.2572                 6.2979                 6.4786
 IR Inten    --     41.8667                 7.5974                11.5892

                     97                     98                     99
                      A                      A                      A
 Frequencies --   3163.6098              3172.5616              3192.5888
 Red. masses --      1.1022                 1.1003                 1.1036
 Frc consts  --      6.4992                 6.5249                 6.6277
 IR Inten    --      8.4690                21.9385                 4.1141

                    100                    101                    102
                      A                      A                      A
 Frequencies --   3198.4920              3218.4792              3250.1504
 Red. masses --      1.0945                 1.0907                 1.0974
 Frc consts  --      6.5969                 6.6566                 6.8298
 IR Inten    --     21.8585                 7.7825                 2.1762

                    103                    104                    105
                      A                      A                      A
 Frequencies --   3251.5706              3666.3044              3692.8873
 Red. masses --      1.0926                 1.0793                 1.0812
 Frc consts  --      6.8062                 8.5473                 8.6872
 IR Inten    --      4.3179                36.0798               101.5012

 - Thermochemistry -
 -------------------
 Temperature   298.150 Kelvin.  Pressure   1.00000 Atm.
 Atom     1 has atomic number  6 and mass  12.00000

 Molecular mass:   301.11639 amu.
 Principal axes and moments of inertia in atomic units:
                           1         2         3
     Eigenvalues --  6395.115487274.29420**********
           X            0.96904   0.24673   0.00965
           Y           -0.24645   0.96887  -0.02355
           Z           -0.01516   0.02045   0.99968
 This molecule is an asymmetric top.
 Rotational symmetry number  1.
 Warning -- assumption of classical behavior for rotation
           may cause significant error
 Rotational temperatures (Kelvin)      0.01354     0.01191     0.00733
 Rotational constants (GHZ):           0.28221     0.24810     0.15274
    1 imaginary frequencies ignored.
 Zero-point vibrational energy     756503.1 (Joules/Mol)
                                  180.80858 (Kcal/Mol)
 Warning -- explicit consideration of  32 degrees of freedom as
           vibrations may cause significant error
 Vibrational temperatures:     32.76    46.70    54.37    60.52    72.72
          (Kelvin)             83.31   102.31   102.58   133.66   147.86
                              162.27   186.86   236.96   270.39   313.98
                              378.13   405.49   431.46   459.50   481.77
                              555.62   560.82   578.34   621.11   638.78
                              658.85   671.49   735.95   742.95   785.51
                              813.85   876.53   893.29   930.31   958.13
                              970.84  1050.61  1089.76  1114.44  1144.26
                             1173.38  1206.20  1213.41  1308.64  1347.24
                             1359.56  1363.97  1421.01  1456.65  1499.26
                             1505.98  1516.71  1554.12  1586.23  1625.28
                             1634.21  1662.27  1683.76  1732.93  1738.92
                             1786.57  1802.12  1816.39  1830.35  1841.43
                             1856.14  1885.15  1914.93  1935.39  1948.67
                             1977.01  2012.87  2023.50  2074.69  2078.47
                             2096.18  2099.48  2102.25  2109.69  2119.14
                             2141.66  2158.18  2235.66  2238.24  2278.76
                             2384.35  2466.66  2611.99  4360.46  4405.05
                             4430.56  4449.83  4458.58  4478.43  4534.09
                             4551.73  4564.61  4593.42  4601.92  4630.67
                             4676.24  4678.28  5274.99  5313.24

 Zero-point correction=                           0.288137 (Hartree/Particle)
 Thermal correction to Energy=                    0.309180
 Thermal correction to Enthalpy=                  0.310124
 Thermal correction to Gibbs Free Energy=         0.234142
 Sum of electronic and zero-point Energies=          -1101.924226
 Sum of electronic and thermal Energies=             -1101.903183
 Sum of electronic and thermal Enthalpies=           -1101.902239
 Sum of electronic and thermal Free Energies=        -1101.978221

                     E (Thermal)             CV                S
                      KCal/Mol        Cal/Mol-Kelvin    Cal/Mol-Kelvin
 Total                  194.013             75.800            159.918
 Electronic               0.000              0.000              1.377
 Translational            0.889              2.981             43.004
 Rotational               0.889              2.981             34.663
 Vibrational            192.236             69.838             80.874
 Vibration     1          0.593              1.985              6.377
 Vibration     2          0.594              1.983              5.673
 Vibration     3          0.594              1.982              5.372
 Vibration     4          0.595              1.980              5.160
 Vibration     5          0.595              1.977              4.796
 Vibration     6          0.596              1.974              4.527
 Vibration     7          0.598              1.968              4.122
 Vibration     8          0.598              1.968              4.117
 Vibration     9          0.602              1.954              3.598
 Vibration    10          0.605              1.947              3.401
 Vibration    11          0.607              1.939              3.220
 Vibration    12          0.612              1.923              2.948
 Vibration    13          0.623              1.886              2.495
 Vibration    14          0.633              1.856              2.248
 Vibration    15          0.646              1.813              1.974
 Vibration    16          0.670              1.741              1.643
 Vibration    17          0.681              1.707              1.523
 Vibration    18          0.692              1.674              1.418
 Vibration    19          0.705              1.637              1.313
 Vibration    20          0.716              1.606              1.237
 Vibration    21          0.755              1.500              1.015
 Vibration    22          0.758              1.492              1.001
 Vibration    23          0.768              1.466              0.955
 Vibration    24          0.793              1.401              0.853
 Vibration    25          0.803              1.374              0.814
 Vibration    26          0.816              1.343              0.772
 Vibration    27          0.824              1.324              0.747
 Vibration    28          0.867              1.224              0.630
 Vibration    29          0.871              1.214              0.618
 Vibration    30          0.901              1.149              0.553
 Vibration    31          0.922              1.106              0.513
 Vibration    32          0.968              1.012              0.434

 Optimization completed.
    -- Stationary point found.
 Normal termination of Gaussian 16 at Fri Mar 28 09:35:11 2025.
