 Gaussian 16, Revision A.03,
 Gaussian 16:  AS64L-G16RevA.03 25-Dec-2016

 ----------------------------------------------------------------------
 # opt=(calcfc,ts,noeigentest) freq cc-pvdz empiricaldispersion=gd3 m06
 2x
 ----------------------------------------------------------------------

 ----------------------
 FulveneCyanoethyleneTS
 ----------------------
 Symbolic Z-matrix:
 Charge =  0 Multiplicity = 1

 SCF Done:  E(RM062X) =  -1199.98963414     A.U. after   18 cycles
 SCF Done:  E(RM062X) =  -1200.05155690     A.U. after   16 cycles
 SCF Done:  E(RM062X) =  -1200.07470285     A.U. after   15 cycles
 SCF Done:  E(RM062X) =  -1200.09870489     A.U. after   15 cycles
 SCF Done:  E(RM062X) =  -1200.11768624     A.U. after   16 cycles
 SCF Done:  E(RM062X) =  -1200.12182521     A.U. after   14 cycles
 SCF Done:  E(RM062X) =  -1200.12264075     A.U. after   15 cycles
 SCF Done:  E(RM062X) =  -1200.12286925     A.U. after   14 cycles
 SCF Done:  E(RM062X) =  -1200.12296604     A.U. after   14 cycles
 SCF Done:  E(RM062X) =  -1200.12474259     A.U. after   14 cycles
 SCF Done:  E(RM062X) =  -1200.12725723     A.U. after   12 cycles
 SCF Done:  E(RM062X) =  -1200.12725799     A.U. after    9 cycles
 SCF Done:  E(RM062X) =  -1200.12715643     A.U. after   13 cycles
 SCF Done:  E(RM062X) =  -1200.12725388     A.U. after   13 cycles
 SCF Done:  E(RM062X) =  -1200.12725666     A.U. after   12 cycles
 SCF Done:  E(RM062X) =  -1200.12725845     A.U. after   10 cycles
 SCF Done:  E(RM062X) =  -1200.12725851     A.U. after    7 cycles
 SCF Done:  E(RM062X) =  -1200.12725851     A.U. after    8 cycles
 SCF Done:  E(RM062X) =  -1200.12725854     A.U. after    7 cycles
 Optimization completed.
    -- Stationary point found.
 Normal termination of Gaussian 16 at Mon Oct 28 18:55:36 2024.

 -------------------------------------------------------------------
 #N Geom=AllCheck Guess=TCheck SCRF=Check GenChk RM062X/CC-pVDZ Freq
 -------------------------------------------------------------------

 Structure from the checkpoint file:  "FulveneCyanoethyleneTS.chk"
 ----------------------
 FulveneCyanoethyleneTS
 ----------------------
 Charge =  0 Multiplicity = 1

                         Standard orientation:
 ---------------------------------------------------------------------
 Center     Atomic      Atomic             Coordinates (Angstroms)
 Number     Number       Type             X           Y           Z
 ---------------------------------------------------------------------
      1          6           0       -0.873053   -1.474761   -1.505888
      2          6           0       -0.244754    0.598028   -0.770878
      3          6           0       -1.466420   -0.031350    0.836001
      4          6           0       -1.643751   -0.499775   -2.197268
      5          6           0       -1.255833    0.754106   -1.762236
      6          1           0       -0.908389   -2.542238   -1.719766
      7          1           0        0.309285    1.429001   -0.334249
      8          6           0       -0.436418    0.000229    1.848175
      9          7           0        0.429139    0.013996    2.617156
     10          1           0       -1.735347    1.696150   -2.019773
     11          1           0       -2.487829   -0.719960   -2.847750
     12          6           0       -1.891249   -1.342608    0.392810
     13          6           0       -1.230259   -2.486108    0.980924
     14          7           0       -0.663987   -3.406204    1.398841
     15          6           0        0.273425   -0.773957   -0.912828
     16          6           0        1.472604   -1.265165   -0.529485
     17          6           0       -2.389018    1.150582    0.930358
     18          8           0       -2.138956    2.124115    1.593020
     19          8           0       -3.471246    0.995454    0.168358
     20          6           0       -4.435490    2.065938    0.206010
     21          1           0       -5.375326    1.587558   -0.092213
     22          1           0       -4.513435    2.425705    1.240018
     23          6           0       -3.251426   -1.632330   -0.000369
     24          7           0       -4.310581   -1.944177   -0.349542
     25          6           0        1.846719   -2.707189   -0.680189
     26          1           0        2.824544   -2.799043   -1.177628
     27          1           0        1.948681   -3.146465    0.324981
     28          1           0        1.107439   -3.294922   -1.234333
     29          6           0        2.543327   -0.370662    0.036065
     30          1           0        2.104146    0.485456    0.564313
     31          1           0        3.130825   -0.934306    0.774011
     32          6           0        3.480290    0.129152   -1.075957
     33          1           0        3.932877   -0.726415   -1.602397
     34          1           0        2.936445    0.732990   -1.812955
     35          6           0        4.607007    0.981973   -0.540367
     36          8           0        4.918299    2.065757   -0.959932
     37          8           0        5.239036    0.371915    0.476669
     38          6           0        6.315598    1.118226    1.045131
     39          1           0        6.712710    0.500035    1.855702
     40          1           0        7.087262    1.312325    0.288513
     41          1           0        5.951075    2.078976    1.431698
     42          6           0       -4.042706    3.184890   -0.736470
     43          1           0       -4.800518    3.980187   -0.703386
     44          1           0       -3.078537    3.617374   -0.435064
     45          1           0       -3.976539    2.819055   -1.771057
 ---------------------------------------------------------------------

 SCF Done:  E(RM062X) =  -1200.12725854     A.U. after    1 cycles

 The electronic state is 1-A.
 Alpha  occ. eigenvalues --  -19.70381 -19.68874 -19.64778 -19.63372 -14.78172
 Alpha  occ. eigenvalues --  -14.77632 -14.77528 -10.71096 -10.68640 -10.66213
 Alpha  occ. eigenvalues --  -10.64653 -10.62258 -10.61711 -10.61677 -10.61137
 Alpha  occ. eigenvalues --  -10.61118 -10.60852 -10.60770 -10.60403 -10.59587
 Alpha  occ. eigenvalues --  -10.59376 -10.58804 -10.58087 -10.57713 -10.57138
 Alpha  occ. eigenvalues --  -10.56324  -1.26032  -1.24318  -1.16494  -1.14740
 Alpha  occ. eigenvalues --   -1.05039  -1.02540  -1.02185  -1.01870  -0.95653
 Alpha  occ. eigenvalues --   -0.94652  -0.89176  -0.88850  -0.85991  -0.82896
 Alpha  occ. eigenvalues --   -0.82199  -0.81200  -0.76957  -0.76461  -0.71384
 Alpha  occ. eigenvalues --   -0.69193  -0.66032  -0.65678  -0.65604  -0.65151
 Alpha  occ. eigenvalues --   -0.62633  -0.60675  -0.60570  -0.58864  -0.58223
 Alpha  occ. eigenvalues --   -0.57429  -0.56708  -0.56541  -0.54642  -0.53509
 Alpha  occ. eigenvalues --   -0.53334  -0.52102  -0.50890  -0.50221  -0.49490
 Alpha  occ. eigenvalues --   -0.49154  -0.48512  -0.48316  -0.47443  -0.47093
 Alpha  occ. eigenvalues --   -0.46349  -0.45848  -0.45446  -0.45312  -0.45028
 Alpha  occ. eigenvalues --   -0.44500  -0.44360  -0.43545  -0.43034  -0.42900
 Alpha  occ. eigenvalues --   -0.42533  -0.42131  -0.41721  -0.41367  -0.41213
 Alpha  occ. eigenvalues --   -0.39800  -0.38727  -0.37777  -0.37590  -0.35475
 Alpha  occ. eigenvalues --   -0.33206  -0.32828  -0.31535
 Alpha virt. eigenvalues --   -0.06493  -0.05855   0.03597   0.04269   0.04779
 Alpha virt. eigenvalues --    0.05731   0.06439   0.07321   0.07966   0.09672
 Alpha virt. eigenvalues --    0.09964   0.10602   0.10835   0.11420   0.11771

 Mulliken charges:
               1
     1  C   -0.049513
     2  C   -0.065119
     3  C   -0.181300
     4  C    0.073200
     5  C    0.077614
     6  H    0.043101
     7  H    0.042688
     8  C    0.028562
     9  N   -0.084727
    10  H    0.018170
    11  H    0.031305
    12  C   -0.143687
    13  C    0.025832
    14  N   -0.084805
    15  C    0.117817
    16  C   -0.256252
    17  C    0.333011
    18  O   -0.237346
    19  O   -0.289201
    20  C    0.094588
    21  H    0.060757
    22  H    0.064238
    23  C    0.021523
    24  N   -0.084865
    25  C    0.032078
    26  H    0.057430
    27  H    0.096839
    28  H    0.051815
    29  C    0.000228
    30  H    0.060854
    31  H    0.062341
    32  C   -0.005387
    33  H    0.069740
    34  H    0.056740
    35  C    0.188786
    36  O   -0.254776
    37  O   -0.295299
    38  C    0.083847
    39  H    0.058872
    40  H    0.055640
    41  H    0.059120
    42  C   -0.115927
    43  H    0.058958
    44  H    0.063929
    45  H    0.058584
 Sum of Mulliken charges =  -0.00000

 Dipole moment (field-independent basis, Debye):
    X=              1.3418    Y=              1.6275    Z=             -4.5752  Tot=              5.0380
 Quadrupole moment (field-independent basis, Debye-Ang):
   XX=           -139.8415   YY=           -160.6013   ZZ=           -158.4333
   XY=            -23.0046   XZ=              8.6935   YZ=              6.2361

  Exact polarizability: 280.874  -9.564 215.490  19.857  -4.507 191.184
 Approx polarizability: 322.197  -4.610 295.365  37.911 -10.354 283.588

 ******    1 imaginary frequencies (negative Signs) ******

                      1                      2                      3
                      A                      A                      A
 Frequencies --   -444.1942                19.1773                21.0766
 Red. masses --     10.4810                 5.3668                 5.7136
 Frc consts  --      1.2184                 0.0012                 0.0015
 IR Inten    --     18.8757                 1.9412                 1.0936

                      4                      5                      6
                      A                      A                      A
 Frequencies --     32.4755                44.8624                50.9748
 Red. masses --      6.1197                 3.7636                 4.5920
 Frc consts  --      0.0038                 0.0045                 0.0070
 IR Inten    --      0.6257                 0.3309                 1.3524

                      7                      8                      9
                      A                      A                      A
 Frequencies --     58.7763                68.5712                89.2348
 Red. masses --      3.9097                 3.6528                 6.6082
 Frc consts  --      0.0080                 0.0101                 0.0310
 IR Inten    --      0.5151                 0.6910                 0.6232

                     10                     11                     12
                      A                      A                      A
 Frequencies --     95.9344               104.2179               116.9587
 Red. masses --      7.2692                 4.7818                 5.1354
 Frc consts  --      0.0394                 0.0306                 0.0414
 IR Inten    --      0.1863                 2.2625                 0.3860

                     13                     14                     15
                      A                      A                      A
 Frequencies --    122.9366               126.3876               147.2520
 Red. masses --     10.6272                 5.2737                 4.3158
 Frc consts  --      0.0946                 0.0496                 0.0551
 IR Inten    --      0.7403                 0.6989                 1.2421

                     16                     17                     18
                      A                      A                      A
 Frequencies --    152.7121               158.1563               160.0184
 Red. masses --      6.7355                 2.9247                 1.2990
 Frc consts  --      0.0925                 0.0431                 0.0196
 IR Inten    --      2.9681                 4.5498                 2.9019

                     19                     20                     21
                      A                      A                      A
 Frequencies --    166.9764               175.2956               188.1684
 Red. masses --      1.1687                 4.3656                 5.5108
 Frc consts  --      0.0192                 0.0790                 0.1150
 IR Inten    --      2.7808                 3.9672                 7.0636

                     22                     23                     24
                      A                      A                      A
 Frequencies --    208.9829               223.0711               234.1159
 Red. masses --      3.1345                 5.3263                 4.2811
 Frc consts  --      0.0807                 0.1562                 0.1383
 IR Inten    --      8.7765                 1.5669                12.0326

                     25                     26                     27
                      A                      A                      A
 Frequencies --    255.8925               258.3536               289.5902
 Red. masses --      1.3990                 3.1037                 3.7061
 Frc consts  --      0.0540                 0.1221                 0.1831
 IR Inten    --      3.0457                 2.3807                 9.9984

                     28                     29                     30
                      A                      A                      A
 Frequencies --    313.0021               338.2084               369.0085
 Red. masses --      3.3605                 2.7505                 4.0254
 Frc consts  --      0.1940                 0.1854                 0.3229
 IR Inten    --     10.2849                 7.0167                 1.5419

                     31                     32                     33
                      A                      A                      A
 Frequencies --    378.7433               407.5724               432.4082
 Red. masses --      3.7526                 6.3899                 4.2315
 Frc consts  --      0.3172                 0.6254                 0.4662
 IR Inten    --      2.6047                 6.4660                 6.3340

                     34                     35                     36
                      A                      A                      A
 Frequencies --    441.9601               472.6795               480.7012
 Red. masses --      8.4783                 6.5190                 4.1222
 Frc consts  --      0.9757                 0.8581                 0.5612
 IR Inten    --     10.8926                 4.7596                 5.3199

                     37                     38                     39
                      A                      A                      A
 Frequencies --    489.8481               503.7998               521.4549
 Red. masses --      5.9160                 5.1828                 7.8502
 Frc consts  --      0.8364                 0.7751                 1.2577
 IR Inten    --      4.0041                 1.5899                 0.1463

                     40                     41                     42
                      A                      A                      A
 Frequencies --    526.6027               538.5471               561.9102
 Red. masses --      9.8395                 4.4372                 3.9088
 Frc consts  --      1.6076                 0.7582                 0.7272
 IR Inten    --      2.8459                 1.9057                 0.9528

                     43                     44                     45
                      A                      A                      A
 Frequencies --    611.8602               621.3145               648.9164
 Red. masses --      4.0673                10.8316                 4.4193
 Frc consts  --      0.8971                 2.4636                 1.0964
 IR Inten    --      0.3278                 1.1716                13.1212

                     46                     47                     48
                      A                      A                      A
 Frequencies --    662.3372               718.4184               741.3371
 Red. masses --      4.4767                 4.6865                 2.5293
 Frc consts  --      1.1571                 1.4251                 0.8190
 IR Inten    --      1.7908                 7.4513                 3.1391

                     49                     50                     51
                      A                      A                      A
 Frequencies --    775.1807               786.6344               790.2627
 Red. masses --      1.5963                 2.1826                 4.1304
 Frc consts  --      0.5652                 0.7957                 1.5198
 IR Inten    --      8.3585                 0.7753                 2.0552

                     52                     53                     54
                      A                      A                      A
 Frequencies --    809.9810               817.6540               834.7674
 Red. masses --      1.2392                 4.4071                 2.2322
 Frc consts  --      0.4790                 1.7360                 0.9165
 IR Inten    --     71.2873                 2.0225                 8.7024

                     55                     56                     57
                      A                      A                      A
 Frequencies --    891.5976               902.7107               904.3922
 Red. masses --      3.8389                 2.4915                 3.2502
 Frc consts  --      1.7980                 1.1962                 1.5663
 IR Inten    --     25.0968                 4.7738                23.6244

                     58                     59                     60
                      A                      A                      A
 Frequencies --    918.8466               954.8151               981.3190
 Red. masses --      1.2834                 1.6967                 1.4979
 Frc consts  --      0.6384                 0.9114                 0.8499
 IR Inten    --      1.9855                12.3384                 4.9188

                     61                     62                     63
                      A                      A                      A
 Frequencies --    985.8748               999.6512              1001.4266
 Red. masses --      1.3771                 1.4965                 6.6736
 Frc consts  --      0.7886                 0.8811                 3.9432
 IR Inten    --      4.6263                 4.9914                 2.4793

                     64                     65                     66
                      A                      A                      A
 Frequencies --   1020.5096              1061.0044              1063.2466
 Red. masses --      1.7515                 3.6128                 1.3641
 Frc consts  --      1.0747                 2.3962                 0.9086
 IR Inten    --      1.8927                17.4095                13.1443

                     67                     68                     69
                      A                      A                      A
 Frequencies --   1064.2267              1065.2059              1082.6390
 Red. masses --      1.6524                 1.9375                 1.8035
 Frc consts  --      1.1027                 1.2952                 1.2454
 IR Inten    --      2.5025                 2.6317                 6.7193

                     70                     71                     72
                      A                      A                      A
 Frequencies --   1113.4675              1118.2518              1146.4604
 Red. masses --      2.6819                 2.1543                 2.3006
 Frc consts  --      1.9591                 1.5872                 1.7816
 IR Inten    --     46.6495                13.9860                20.2465

                     73                     74                     75
                      A                      A                      A
 Frequencies --   1158.6649              1174.7941              1182.5261
 Red. masses --      6.3490                 1.2930                 2.0986
 Frc consts  --      5.0219                 1.0514                 1.7290
 IR Inten    --     66.2689                 0.9602                 0.5185

                     76                     77                     78
                      A                      A                      A
 Frequencies --   1193.0935              1196.6848              1209.6694
 Red. masses --      1.8657                 1.7169                 1.5155
 Frc consts  --      1.5647                 1.4486                 1.3066
 IR Inten    --      2.9922                26.6600                 2.6057

                     79                     80                     81
                      A                      A                      A
 Frequencies --   1240.8598              1247.8538              1283.5188
 Red. masses --      6.8615                 1.4229                 1.6966
 Frc consts  --      6.2246                 1.3054                 1.6467
 IR Inten    --    217.8581                11.2863                12.0505

                     82                     83                     84
                      A                      A                      A
 Frequencies --   1293.4639              1329.4507              1330.9317
 Red. masses --      1.4179                 1.2600                 2.1830
 Frc consts  --      1.3977                 1.3121                 2.2783
 IR Inten    --     36.5517                15.0353               339.8985

                     85                     86                     87
                      A                      A                      A
 Frequencies --   1349.4847              1354.0226              1359.5623
 Red. masses --      3.0936                 2.1538                 2.5553
 Frc consts  --      3.3194                 2.3265                 2.7828
 IR Inten    --     54.6237               212.4717                 8.1315

                     88                     89                     90
                      A                      A                      A
 Frequencies --   1372.2559              1384.9703              1394.6746
 Red. masses --      1.8833                 1.6641                 1.5642
 Frc consts  --      2.0895                 1.8806                 1.7926
 IR Inten    --     51.7357               138.6936                25.5097

                     91                     92                     93
                      A                      A                      A
 Frequencies --   1417.9961              1426.7576              1436.8761
 Red. masses --      4.2710                 1.7100                 1.0844
 Frc consts  --      5.0598                 2.0509                 1.3191
 IR Inten    --      0.6578                40.6005                16.1297

                     94                     95                     96
                      A                      A                      A
 Frequencies --   1442.5380              1454.8996              1462.4825
 Red. masses --      1.1007                 1.1091                 1.0429
 Frc consts  --      1.3495                 1.3832                 1.3142
 IR Inten    --      2.3297                18.3034                14.0308

                     97                     98                     99
                      A                      A                      A
 Frequencies --   1462.9790              1466.5142              1469.4622
 Red. masses --      1.0402                 1.2683                 2.5931
 Frc consts  --      1.3117                 1.6071                 3.2990
 IR Inten    --      8.4010                56.3800                11.5283

                    100                    101                    102
                      A                      A                      A
 Frequencies --   1473.8515              1480.9073              1482.7801
 Red. masses --      1.1323                 1.0767                 1.1843
 Frc consts  --      1.4492                 1.3912                 1.5342
 IR Inten    --      9.6229                 5.1505                28.4147

                    103                    104                    105
                      A                      A                      A
 Frequencies --   1486.1587              1530.9132              1756.9316
 Red. masses --      1.1180                 4.4173                 8.6700
 Frc consts  --      1.4549                 6.0997                15.7681
 IR Inten    --     28.3666                21.1356               192.1513

                    106                    107                    108
                      A                      A                      A
 Frequencies --   1862.1456              1887.9965              2409.2902
 Red. masses --     12.2151                11.6036                12.6807
 Frc consts  --     24.9560                24.3694                43.3681
 IR Inten    --    266.8740               278.8771                12.9141

                    109                    110                    111
                      A                      A                      A
 Frequencies --   2415.4263              2417.7921              3061.6796
 Red. masses --     12.6824                12.6805                 1.0400
 Frc consts  --     43.5952                43.6740                 5.7437
 IR Inten    --     36.6623                18.7150                 5.0932

                    112                    113                    114
                      A                      A                      A
 Frequencies --   3070.2286              3078.3313              3081.4991
 Red. masses --      1.0358                 1.0641                 1.0318
 Frc consts  --      5.7526                 5.9409                 5.7725
 IR Inten    --      7.6926                 7.6431                29.3405

                    115                    116                    117
                      A                      A                      A
 Frequencies --   3103.2657              3113.3056              3128.0773
 Red. masses --      1.0612                 1.0603                 1.0995
 Frc consts  --      6.0213                 6.0549                 6.3386
 IR Inten    --      1.5703                17.3597                 8.7971

                    118                    119                    120
                      A                      A                      A
 Frequencies --   3147.0450              3155.2775              3160.1621
 Red. masses --      1.1002                 1.1031                 1.1032
 Frc consts  --      6.4201                 6.4708                 6.4914
 IR Inten    --      0.8959                12.4693                11.5114

                    121                    122                    123
                      A                      A                      A
 Frequencies --   3163.9848              3166.9312              3183.9278
 Red. masses --      1.1041                 1.1071                 1.1099
 Frc consts  --      6.5120                 6.5420                 6.6289
 IR Inten    --      5.0822                14.7256                 8.5101

                    124                    125                    126
                      A                      A                      A
 Frequencies --   3188.7604              3207.7490              3233.5142
 Red. masses --      1.1000                 1.1075                 1.0932
 Frc consts  --      6.5901                 6.7141                 6.7347
 IR Inten    --      6.9944                 8.9584                 0.1016

                    127                    128                    129
                      A                      A                      A
 Frequencies --   3241.4722              3255.0165              3270.7437
 Red. masses --      1.0936                 1.0945                 1.1062
 Frc consts  --      6.7703                 6.8326                 6.9721
 IR Inten    --      0.8394                 0.3288                 0.0847

 - Thermochemistry -
 -------------------
 Temperature   298.150 Kelvin.  Pressure   1.00000 Atm.
 Atom     1 has atomic number  6 and mass  12.00000

 Molecular mass:   353.13756 amu.
 Principal axes and moments of inertia in atomic units:
                           1         2         3
     Eigenvalues --  5165.27384********************
           X            0.99972  -0.02179   0.00958
           Y            0.02169   0.99971   0.01076
           Z           -0.00981  -0.01055   0.99990
 This molecule is an asymmetric top.
 Rotational symmetry number  1.
 Warning -- assumption of classical behavior for rotation
           may cause significant error
 Rotational temperatures (Kelvin)      0.01677     0.00616     0.00548
 Rotational constants (GHZ):           0.34940     0.12842     0.11426
    1 imaginary frequencies ignored.
 Zero-point vibrational energy     919647.6 (Joules/Mol)
                                  219.80106 (Kcal/Mol)
 Warning -- explicit consideration of  42 degrees of freedom as
           vibrations may cause significant error
 Vibrational temperatures:     27.59    30.32    46.73    64.55    73.34
          (Kelvin)             84.57    98.66   128.39   138.03   149.95
                              168.28   176.88   181.84   211.86   219.72
                              227.55   230.23   240.24   252.21   270.73
                              300.68   320.95   336.84   368.17   371.71
                              416.66   450.34   486.61   530.92   544.93
                              586.41   622.14   635.88   680.08   691.62
                              704.78   724.86   750.26   757.66   774.85
                              808.46   880.33   893.93   933.65   952.96
                             1033.64  1066.62  1115.31  1131.79  1137.01
                             1165.38  1176.42  1201.04  1282.81  1298.80
                             1301.22  1322.02  1373.77  1411.90  1418.45
                             1438.28  1440.83  1468.29  1526.55  1529.77
                             1531.18  1532.59  1557.68  1602.03  1608.91
                             1649.50  1667.06  1690.27  1701.39  1716.60
                             1721.76  1740.44  1785.32  1795.38  1846.70
                             1861.01  1912.78  1914.91  1941.61  1948.14
                             1956.11  1974.37  1992.66  2006.63  2040.18
                             2052.79  2067.34  2075.49  2093.28  2104.19
                             2104.90  2109.99  2114.23  2120.54  2130.70
                             2133.39  2138.25  2202.64  2527.83  2679.21
                             2716.41  3466.43  3475.26  3478.66  4405.07
                             4417.37  4429.03  4433.59  4464.91  4479.35
                             4500.61  4527.90  4539.74  4546.77  4552.27
                             4556.51  4580.96  4587.92  4615.24  4652.31
                             4663.76  4683.24  4705.87

 Zero-point correction=                           0.350275 (Hartree/Particle)
 Thermal correction to Energy=                    0.376911
 Thermal correction to Enthalpy=                  0.377855
 Thermal correction to Gibbs Free Energy=         0.291165
 Sum of electronic and zero-point Energies=          -1199.776983
 Sum of electronic and thermal Energies=             -1199.750347
 Sum of electronic and thermal Enthalpies=           -1199.749403
 Sum of electronic and thermal Free Energies=        -1199.836093

                     E (Thermal)             CV                S
                      KCal/Mol        Cal/Mol-Kelvin    Cal/Mol-Kelvin
 Total                  236.515             95.682            182.454
 Electronic               0.000              0.000              0.000
 Translational            0.889              2.981             43.479
 Rotational               0.889              2.981             35.393
 Vibrational            234.738             89.721            103.582
 Vibration     1          0.593              1.986              6.718
 Vibration     2          0.593              1.985              6.530
 Vibration     3          0.594              1.983              5.672
 Vibration     4          0.595              1.979              5.032
 Vibration     5          0.595              1.977              4.779
 Vibration     6          0.596              1.974              4.498
 Vibration     7          0.598              1.969              4.194
 Vibration     8          0.602              1.957              3.677
 Vibration     9          0.603              1.952              3.535
 Vibration    10          0.605              1.946              3.374
 Vibration    11          0.608              1.935              3.150
 Vibration    12          0.610              1.930              3.054
 Vibration    13          0.611              1.927              3.000
 Vibration    14          0.617              1.906              2.707
 Vibration    15          0.619              1.900              2.638
 Vibration    16          0.621              1.893              2.572
 Vibration    17          0.622              1.891              2.550
 Vibration    18          0.624              1.883              2.469
 Vibration    19          0.627              1.873              2.378
 Vibration    20          0.633              1.856              2.246
 Vibration    21          0.642              1.827              2.053
 Vibration    22          0.649              1.806              1.934
 Vibration    23          0.654              1.789              1.847
 Vibration    24          0.666              1.753              1.690
 Vibration    25          0.667              1.749              1.673
 Vibration    26          0.686              1.693              1.476
 Vibration    27          0.701              1.649              1.346
 Vibration    28          0.719              1.599              1.221
 Vibration    29          0.741              1.536              1.084
 Vibration    30          0.749              1.515              1.044
 Vibration    31          0.772              1.454              0.935
 Vibration    32          0.793              1.400              0.851
 Vibration    33          0.802              1.379              0.820
 Vibration    34          0.830              1.311              0.730
 Vibration    35          0.837              1.293              0.708
 Vibration    36          0.846              1.273              0.684
 Vibration    37          0.859              1.242              0.649
 Vibration    38          0.876              1.202              0.607
 Vibration    39          0.882              1.191              0.595
 Vibration    40          0.894              1.165              0.568
 Vibration    41          0.918              1.114              0.520
 Vibration    42          0.971              1.007              0.430

 Optimization completed.
    -- Stationary point found.
 Normal termination of Gaussian 16 at Mon Oct 28 20:20:36 2024.
