 Gaussian 16, Revision A.03,
 Gaussian 16:  AS64L-G16RevA.03 25-Dec-2016

 ----------------------------------------------------------------------
 # opt=(calcfc,ts,noeigentest) freq cc-pvdz empiricaldispersion=gd3 m06
 2x
 ----------------------------------------------------------------------

 --------------------
 FuranMaleimideTSEndo
 --------------------
 Symbolic Z-matrix:
 Charge =  0 Multiplicity = 1

 SCF Done:  E(RM062X) =  -857.534481671     A.U. after   15 cycles
 SCF Done:  E(RM062X) =  -857.549533178     A.U. after   14 cycles
 SCF Done:  E(RM062X) =  -857.557236759     A.U. after   14 cycles
 SCF Done:  E(RM062X) =  -857.560314356     A.U. after   13 cycles
 SCF Done:  E(RM062X) =  -857.561318737     A.U. after   14 cycles
 SCF Done:  E(RM062X) =  -857.561408376     A.U. after   14 cycles
 SCF Done:  E(RM062X) =  -857.561421195     A.U. after   12 cycles
 SCF Done:  E(RM062X) =  -857.561423006     A.U. after    9 cycles
 SCF Done:  E(RM062X) =  -857.560526996     A.U. after   15 cycles
 SCF Done:  E(RM062X) =  -857.561324709     A.U. after   13 cycles
 SCF Done:  E(RM062X) =  -857.561415654     A.U. after   13 cycles
 SCF Done:  E(RM062X) =  -857.561423672     A.U. after   12 cycles
 SCF Done:  E(RM062X) =  -857.561423716     A.U. after    8 cycles
 Optimization completed.
    -- Stationary point found.
 Normal termination of Gaussian 16 at Wed May  8 15:45:12 2024.

 -------------------------------------------------------------------
 #N Geom=AllCheck Guess=TCheck SCRF=Check GenChk RM062X/CC-pVDZ Freq
 -------------------------------------------------------------------

 Structure from the checkpoint file:  "FM_C1-A_TSEndo_optfreq_CREST.chk"
 --------------------
 FuranMaleimideTSEndo
 --------------------
 Charge =  0 Multiplicity = 1

                         Standard orientation:
 ---------------------------------------------------------------------
 Center     Atomic      Atomic             Coordinates (Angstroms)
 Number     Number       Type             X           Y           Z
 ---------------------------------------------------------------------
      1          6           0        2.105211   -0.551430   -1.075661
      2          6           0        1.348298    0.629264   -1.044170
      3          6           0       -0.393091   -0.025790   -0.068079
      4          6           0        0.117072   -0.267486    1.238463
      5          6           0        0.812428   -1.451167    1.165843
      6          1           0        0.061866    0.437111    2.063989
      7          1           0        1.450067   -1.909318    1.916987
      8          6           0        0.690149   -1.883944   -0.180672
      9          1           0        0.910722   -2.861960   -0.599876
     10          6           0        3.212574   -0.406878   -0.079033
     11          6           0        1.955818    1.547335   -0.035770
     12          8           0        1.614237    2.664752    0.270928
     13          8           0        4.104355   -1.174063    0.186432
     14          1           0        2.256529   -1.183378   -1.947443
     15          1           0        0.806806    1.051422   -1.888693
     16          8           0       -0.329631   -1.203371   -0.766656
     17          7           0        3.004194    0.830338    0.537452
     18          1           0        3.587471    1.187909    1.285144
     19          6           0       -1.443823    0.974387   -0.450545
     20          1           0       -1.028725    1.978468   -0.287684
     21          1           0       -1.692947    0.846879   -1.516046
     22          8           0       -2.600981    0.880286    0.355129
     23          6           0       -3.399063   -0.244522    0.053106
     24          1           0       -2.778790   -1.156795    0.042871
     25          6           0       -4.470364   -0.313253    1.118140
     26          1           0       -5.152159   -1.147340    0.911179
     27          1           0       -4.016785   -0.444252    2.108796
     28          1           0       -5.038966    0.629617    1.123085
     29          8           0       -3.924476   -0.154432   -1.242426
     30          1           0       -4.513729    0.614796   -1.251477
 ---------------------------------------------------------------------

 SCF Done:  E(RM062X) =  -857.561423716     A.U. after    1 cycles

 The electronic state is 1-A.
 Alpha  occ. eigenvalues --  -19.71040 -19.64973 -19.64288 -19.62502 -19.62319
 Alpha  occ. eigenvalues --  -14.79707 -10.66903 -10.66820 -10.64680 -10.64163
 Alpha  occ. eigenvalues --  -10.63921 -10.61111 -10.57666 -10.57389 -10.57319
 Alpha  occ. eigenvalues --  -10.57315 -10.54791  -1.25782  -1.20159  -1.18659
 Alpha  occ. eigenvalues --   -1.16917  -1.13012  -1.05576  -0.93179  -0.89635
 Alpha  occ. eigenvalues --   -0.89275  -0.84934  -0.77794  -0.75984  -0.71575
 Alpha  occ. eigenvalues --   -0.69420  -0.69070  -0.67477  -0.66259  -0.63132
 Alpha  occ. eigenvalues --   -0.60161  -0.58231  -0.56894  -0.56284  -0.55540
 Alpha  occ. eigenvalues --   -0.53846  -0.52577  -0.52210  -0.51142  -0.50610
 Alpha  occ. eigenvalues --   -0.49548  -0.49016  -0.48873  -0.47554  -0.46576
 Alpha  occ. eigenvalues --   -0.46169  -0.45582  -0.44518  -0.43970  -0.38670
 Alpha  occ. eigenvalues --   -0.37394  -0.37169  -0.35834  -0.35599  -0.34146
 Alpha  occ. eigenvalues --   -0.33070  -0.31334  -0.30985
 Alpha virt. eigenvalues --   -0.01663   0.02512   0.03988   0.09176   0.09805
 Alpha virt. eigenvalues --    0.10798   0.11776   0.12565   0.13107   0.13854
 Alpha virt. eigenvalues --    0.14051   0.15356   0.15839   0.16793   0.17020

 Mulliken charges:
               1
     1  C   -0.092857
     2  C   -0.058612
     3  C   -0.107153
     4  C    0.043203
     5  C    0.024026
     6  H    0.027585
     7  H    0.034993
     8  C    0.091329
     9  H    0.036646
    10  C    0.214697
    11  C    0.217936
    12  O   -0.243518
    13  O   -0.238221
    14  H    0.046192
    15  H    0.035767
    16  O   -0.179790
    17  N   -0.164595
    18  H    0.118619
    19  C    0.234130
    20  H    0.063626
    21  H    0.045229
    22  O   -0.333748
    23  C    0.159387
    24  H    0.034295
    25  C   -0.033536
    26  H    0.052385
    27  H    0.051817
    28  H    0.041160
    29  O   -0.276147
    30  H    0.155154
 Sum of Mulliken charges =  -0.00000

 Dipole moment (field-independent basis, Debye):
    X=             -2.3917    Y=             -1.1220    Z=              0.5428  Tot=              2.6970
 Quadrupole moment (field-independent basis, Debye-Ang):
   XX=           -101.9682   YY=           -103.2275   ZZ=            -93.3081
   XY=             -0.2990   XZ=              0.0612   YZ=             -2.4319

  Exact polarizability: 158.694  -9.946 132.139  -1.602  -1.412 110.406
 Approx polarizability: 180.642 -21.611 193.279  -2.087   0.865 153.974

 ******    1 imaginary frequencies (negative Signs) ******

                      1                      2                      3
                      A                      A                      A
 Frequencies --   -507.1120                29.8499                41.1424
 Red. masses --      9.7437                 5.2596                 5.2516
 Frc consts  --      1.4763                 0.0028                 0.0052
 IR Inten    --      7.5150                 0.2873                 0.6953

                      4                      5                      6
                      A                      A                      A
 Frequencies --     61.8484                73.6201               105.0380
 Red. masses --      4.5946                 6.6260                 5.5943
 Frc consts  --      0.0104                 0.0212                 0.0364
 IR Inten    --      0.1181                 0.5077                 0.9857

                      7                      8                      9
                      A                      A                      A
 Frequencies --    126.7887               176.6134               180.9681
 Red. masses --      9.0294                 6.0435                 7.2699
 Frc consts  --      0.0855                 0.1111                 0.1403
 IR Inten    --      3.5250                 3.2689                 1.2811

                     10                     11                     12
                      A                      A                      A
 Frequencies --    216.7021               237.5886               256.8615
 Red. masses --      4.0351                 1.5296                 2.3407
 Frc consts  --      0.1116                 0.0509                 0.0910
 IR Inten    --      5.4915                 1.2077                 1.0621

                     13                     14                     15
                      A                      A                      A
 Frequencies --    306.6572               349.9007               357.5110
 Red. masses --      3.8279                 2.6059                 1.8785
 Frc consts  --      0.2121                 0.1880                 0.1415
 IR Inten    --      3.9817                 4.6691                11.8288

                     16                     17                     18
                      A                      A                      A
 Frequencies --    396.7552               403.8385               448.1676
 Red. masses --      1.3832                 8.5188                 3.8012
 Frc consts  --      0.1283                 0.8185                 0.4498
 IR Inten    --     92.9281                17.4865                24.1452

                     19                     20                     21
                      A                      A                      A
 Frequencies --    469.0647               548.7901               562.8486
 Red. masses --      4.6329                 1.5935                 2.6119
 Frc consts  --      0.6006                 0.2828                 0.4875
 IR Inten    --      3.7360                24.5850                 4.7838

                     22                     23                     24
                      A                      A                      A
 Frequencies --    576.7069               582.6177               587.8910
 Red. masses --      2.8565                 2.8956                 3.8101
 Frc consts  --      0.5597                 0.5791                 0.7759
 IR Inten    --     43.5964                89.2380                 6.2890

                     25                     26                     27
                      A                      A                      A
 Frequencies --    632.0264               641.8688               711.3899
 Red. masses --      3.7449                 8.2751                 6.2351
 Frc consts  --      0.8814                 2.0087                 1.8591
 IR Inten    --     11.4108                 6.0339                10.7755

                     28                     29                     30
                      A                      A                      A
 Frequencies --    720.0739               750.6320               792.4410
 Red. masses --      4.3789                 4.8866                 4.5598
 Frc consts  --      1.3377                 1.6222                 1.6871
 IR Inten    --     33.8116                19.5999                 4.2193

                     31                     32                     33
                      A                      A                      A
 Frequencies --    803.1893               846.2379               861.5858
 Red. masses --      1.4019                 1.3767                 2.0645
 Frc consts  --      0.5328                 0.5809                 0.9030
 IR Inten    --     49.7871                 2.3212                 3.8260

                     34                     35                     36
                      A                      A                      A
 Frequencies --    884.9805               909.9446               920.4592
 Red. masses --      5.2823                 1.9134                 2.0670
 Frc consts  --      2.4375                 0.9335                 1.0318
 IR Inten    --      3.4659                 3.5772                 8.2954

                     37                     38                     39
                      A                      A                      A
 Frequencies --    938.7268               942.3322               943.0367
 Red. masses --      1.9902                 1.7992                 1.8031
 Frc consts  --      1.0333                 0.9413                 0.9448
 IR Inten    --      7.1876                18.2347                32.4795

                     40                     41                     42
                      A                      A                      A
 Frequencies --    968.8921               974.9856               999.9895
 Red. masses --      1.9649                 1.6837                 1.4399
 Frc consts  --      1.0868                 0.9430                 0.8483
 IR Inten    --     18.0824                 5.6196                 2.6036

                     43                     44                     45
                      A                      A                      A
 Frequencies --   1033.1691              1049.5722              1082.1951
 Red. masses --      1.1914                 1.2134                 1.7273
 Frc consts  --      0.7493                 0.7876                 1.1919
 IR Inten    --     15.5815                 6.4460                67.9964

                     46                     47                     48
                      A                      A                      A
 Frequencies --   1090.8796              1115.5849              1144.0623
 Red. masses --      1.8002                 2.6063                 1.9807
 Frc consts  --      1.2622                 1.9111                 1.5274
 IR Inten    --      7.1388                10.9231                27.3152

                     49                     50                     51
                      A                      A                      A
 Frequencies --   1160.0018              1186.4828              1196.4312
 Red. masses --      3.3925                 2.2974                 2.5202
 Frc consts  --      2.6896                 1.9055                 2.1255
 IR Inten    --    364.1399                30.9948                72.2080

                     52                     53                     54
                      A                      A                      A
 Frequencies --   1243.3739              1287.4310              1316.2389
 Red. masses --      2.5329                 1.5143                 1.5401
 Frc consts  --      2.3072                 1.4788                 1.5720
 IR Inten    --     35.3088                 1.0470                 6.2964

                     55                     56                     57
                      A                      A                      A
 Frequencies --   1322.9109              1344.2926              1352.2505
 Red. masses --      2.2281                 2.1246                 2.0188
 Frc consts  --      2.2975                 2.2622                 2.1750
 IR Inten    --     15.0594                38.7586                43.2275

                     58                     59                     60
                      A                      A                      A
 Frequencies --   1371.9469              1375.0655              1395.3623
 Red. masses --      1.2460                 7.5716                 1.6756
 Frc consts  --      1.3818                 8.4349                 1.9222
 IR Inten    --      6.4363               211.0556                54.2057

                     61                     62                     63
                      A                      A                      A
 Frequencies --   1415.7317              1436.8493              1451.0673
 Red. masses --      1.3829                 2.8549                 1.3622
 Frc consts  --      1.6331                 3.4727                 1.6899
 IR Inten    --      6.3957                28.2549                70.9134

                     64                     65                     66
                      A                      A                      A
 Frequencies --   1456.1016              1458.1765              1460.0508
 Red. masses --      1.1789                 2.1733                 1.2759
 Frc consts  --      1.4727                 2.7226                 1.6026
 IR Inten    --      7.4718                 0.9783                 9.9634

                     67                     68                     69
                      A                      A                      A
 Frequencies --   1473.2820              1505.4221              1561.6484
 Red. masses --      1.1258                 4.6803                 5.6765
 Frc consts  --      1.4397                 6.2495                 8.1563
 IR Inten    --     18.3858                 5.1492                 5.9901

                     70                     71                     72
                      A                      A                      A
 Frequencies --   1869.1658              1911.8422              3068.7615
 Red. masses --     10.3984                12.5011                 1.0420
 Frc consts  --     21.4049                26.9217                 5.7814
 IR Inten    --    792.5730               152.4428                 8.6117

                     73                     74                     75
                      A                      A                      A
 Frequencies --   3073.2747              3079.4717              3144.9651
 Red. masses --      1.0630                 1.0810                 1.1065
 Frc consts  --      5.9154                 6.0398                 6.4478
 IR Inten    --     13.8842                19.5557                 1.0377

                     76                     77                     78
                      A                      A                      A
 Frequencies --   3157.6062              3183.3519              3240.1027
 Red. masses --      1.0995                 1.1048                 1.0914
 Frc consts  --      6.4592                 6.5964                 6.7505
 IR Inten    --     15.4370                10.0030                 0.4677

                     79                     80                     81
                      A                      A                      A
 Frequencies --   3258.8509              3268.6377              3277.3335
 Red. masses --      1.0989                 1.0914                 1.0971
 Frc consts  --      6.8762                 6.8704                 6.9426
 IR Inten    --      1.1265                 0.5329                 1.0211

                     82                     83                     84
                      A                      A                      A
 Frequencies --   3292.3740              3650.2589              3808.0791
 Red. masses --      1.1090                 1.0810                 1.0654
 Frc consts  --      7.0824                 8.4861                 9.1028
 IR Inten    --      1.8151                98.8883                40.9215

 - Thermochemistry -
 -------------------
 Temperature   298.150 Kelvin.  Pressure   1.00000 Atm.
 Atom     1 has atomic number  6 and mass  12.00000

 Molecular mass:   239.07937 amu.
 Principal axes and moments of inertia in atomic units:
                           1         2         3
     Eigenvalues --  1700.680136173.770436807.01423
           X            0.99998  -0.00117  -0.00656
           Y            0.00105   0.99984  -0.01758
           Z            0.00658   0.01757   0.99982
 This molecule is an asymmetric top.
 Rotational symmetry number  1.
 Warning -- assumption of classical behavior for rotation
           may cause significant error
 Rotational temperatures (Kelvin)      0.05093     0.01403     0.01272
 Rotational constants (GHZ):           1.06119     0.29232     0.26513
    1 imaginary frequencies ignored.
 Zero-point vibrational energy     621521.1 (Joules/Mol)
                                  148.54712 (Kcal/Mol)
 Warning -- explicit consideration of  23 degrees of freedom as
           vibrations may cause significant error
 Vibrational temperatures:     42.95    59.19    88.99   105.92   151.13
          (Kelvin)            182.42   254.11   260.37   311.79   341.84
                              369.57   441.21   503.43   514.38   570.84
                              581.03   644.81   674.88   789.59   809.81
                              829.75   838.26   845.84   909.35   923.51
                             1023.53  1036.03  1079.99  1140.15  1155.61
                             1217.55  1239.63  1273.29  1309.21  1324.34
                             1350.62  1355.81  1356.82  1394.02  1402.79
                             1438.76  1486.50  1510.10  1557.04  1569.53
                             1605.08  1646.05  1668.98  1707.08  1721.40
                             1788.94  1852.33  1893.77  1903.37  1934.14
                             1945.59  1973.93  1978.41  2007.62  2036.92
                             2067.31  2087.76  2095.01  2097.99  2100.69
                             2119.72  2165.97  2246.86  2689.31  2750.71
                             4415.26  4421.76  4430.67  4524.90  4543.09
                             4580.13  4661.79  4688.76  4702.84  4715.35
                             4736.99  5251.91  5478.98

 Zero-point correction=                           0.236725 (Hartree/Particle)
 Thermal correction to Energy=                    0.251788
 Thermal correction to Enthalpy=                  0.252732
 Thermal correction to Gibbs Free Energy=         0.193372
 Sum of electronic and zero-point Energies=           -857.324699
 Sum of electronic and thermal Energies=              -857.309636
 Sum of electronic and thermal Enthalpies=            -857.308692
 Sum of electronic and thermal Free Energies=         -857.368052

                     E (Thermal)             CV                S
                      KCal/Mol        Cal/Mol-Kelvin    Cal/Mol-Kelvin
 Total                  157.999             57.815            124.934
 Electronic               0.000              0.000              0.000
 Translational            0.889              2.981             42.316
 Rotational               0.889              2.981             32.636
 Vibrational            156.222             51.854             49.982
 Vibration     1          0.594              1.984              5.839
 Vibration     2          0.594              1.981              5.203
 Vibration     3          0.597              1.973              4.397
 Vibration     4          0.599              1.966              4.054
 Vibration     5          0.605              1.945              3.359
 Vibration     6          0.611              1.926              2.994
 Vibration     7          0.628              1.871              2.364
 Vibration     8          0.630              1.866              2.318
 Vibration     9          0.646              1.816              1.986
 Vibration    10          0.656              1.783              1.821
 Vibration    11          0.666              1.751              1.683
 Vibration    12          0.697              1.661              1.380
 Vibration    13          0.727              1.575              1.167
 Vibration    14          0.733              1.560              1.133
 Vibration    15          0.763              1.477              0.975
 Vibration    16          0.769              1.462              0.949
 Vibration    17          0.807              1.365              0.801
 Vibration    18          0.826              1.319              0.740
 Vibration    19          0.904              1.142              0.547
 Vibration    20          0.919              1.112              0.518
 Vibration    21          0.933              1.082              0.492
 Vibration    22          0.939              1.069              0.481
 Vibration    23          0.945              1.058              0.471

 Optimization completed.
    -- Stationary point found.
 Normal termination of Gaussian 16 at Wed May  8 15:56:06 2024.
